protein dna data file produced on: Thu Mar 28 16:44:14 2019

8058 atoms
8024 bonds
10760 angles
9340 dihedrals

34 atom types
2 bond types
18 angle types
2 dihedral types

-1000.000000 1000.000000 xlo xhi
-1000.000000 1000.000000 ylo yhi
-1000.000000 1000.000000 zlo zhi

Masses

   1   94.9696
   2   83.1104
   3  134.1220
   4  125.1078
   5  150.1214
   6  110.0964
   7  134.1220
   8  125.1078
   9  150.1214
  10  110.0964
  11  134.1220
  12  125.1078
  13  150.1214
  14  110.0964
  15   71.0788
  16  156.1875
  17  114.1038
  18  115.0886
  19  103.1388
  20  129.1155
  21  128.1307
  22   57.0519
  23  137.1411
  24  113.1594
  25  113.1594
  26  128.1741
  27  131.1926
  28  147.1766
  29   97.1167
  30   87.0782
  31  101.1051
  32  186.2132
  33  163.1760
  34   99.1326

Atoms

      1       1      15    0.0000  3.663000e+01  4.675000e+01  1.467800e+02
      2       1      16    1.0000  3.284000e+01  4.662000e+01  1.470300e+02
      3       1      31    0.0000  3.055000e+01  4.505000e+01  1.496600e+02
      4       1      26    1.0000  2.863000e+01  4.277000e+01  1.473200e+02
      5       1      21    0.0000  2.977000e+01  3.920000e+01  1.466400e+02
      6       1      31    0.0000  2.874000e+01  3.824000e+01  1.501500e+02
      7       1      15    0.0000  2.617000e+01  4.074000e+01  1.514100e+02
      8       1      16    1.0000  2.568000e+01  3.760000e+01  1.534500e+02
      9       1      26    1.0000  2.388000e+01  3.948000e+01  1.562300e+02
     10       1      30    0.0000  2.572000e+01  3.959000e+01  1.595600e+02
     11       1      31    0.0000  2.450000e+01  3.648000e+01  1.613700e+02
     12       1      22    0.0000  2.180000e+01  3.384000e+01  1.609700e+02
     13       1      22    0.0000  2.221000e+01  3.024000e+01  1.599200e+02
     14       1      26    1.0000  1.864000e+01  3.014000e+01  1.586500e+02
     15       1      15    0.0000  1.840000e+01  2.893000e+01  1.550500e+02
     16       1      29    0.0000  1.485000e+01  3.006000e+01  1.541000e+02
     17       1      16    1.0000  1.624000e+01  3.359000e+01  1.544400e+02
     18       1      26    1.0000  1.465000e+01  3.705000e+01  1.545200e+02
     19       1      21    0.0000  1.129000e+01  3.615000e+01  1.529400e+02
     20       1      25    0.0000  8.700000e+00  3.361000e+01  1.541100e+02
     21       1      15    0.0000  9.430000e+00  2.992000e+01  1.547100e+02
     22       1      31    0.0000  1.112000e+01  2.873000e+01  1.579000e+02
     23       1      26    1.0000  1.232000e+01  2.514000e+01  1.575500e+02
     24       1      15    0.0000  1.507000e+01  2.331000e+01  1.594300e+02
     25       1      15    0.0000  1.748000e+01  2.366000e+01  1.565000e+02
     26       1      16    1.0000  2.112000e+01  2.462000e+01  1.570200e+02
     27       1      26    1.0000  2.368000e+01  2.284000e+01  1.548300e+02
     28       1      30    0.0000  2.273000e+01  1.918000e+01  1.543800e+02
     29       1      15    0.0000  1.959000e+01  1.773000e+01  1.528200e+02
     30       1      29    0.0000  1.636000e+01  1.971000e+01  1.533700e+02
     31       1      15    0.0000  1.479000e+01  1.722000e+01  1.509600e+02
     32       1      31    0.0000  1.430000e+01  1.348000e+01  1.515100e+02
     33       1      22    0.0000  1.666000e+01  1.101000e+01  1.498900e+02
     34       1      22    0.0000  2.044000e+01  1.127000e+01  1.496300e+02
     35       1      34    0.0000  2.331000e+01  1.306000e+01  1.513600e+02
     36       1      26    1.0000  2.656000e+01  1.338000e+01  1.493100e+02
     37       1      26    1.0000  2.909000e+01  1.104000e+01  1.509600e+02
     38       1      29    0.0000  2.835000e+01  1.119000e+01  1.547100e+02
     39       1      23    0.0000  3.125000e+01  1.069000e+01  1.571100e+02
     40       1      16    1.0000  3.252000e+01  7.170000e+00  1.578200e+02
     41       1      33    0.0000  3.552000e+01  5.970000e+00  1.598100e+02
     42       1      16    1.0000  3.732000e+01  3.020000e+00  1.582300e+02
     43       1      29    0.0000  3.674000e+01 -5.400000e-01  1.595600e+02
     44       1      22    0.0000  3.912000e+01 -9.000000e-01  1.624900e+02
     45       1      31    0.0000  3.938000e+01  2.770000e+00  1.634100e+02
     46       1      34    0.0000  3.649000e+01  2.640000e+00  1.658500e+02
     47       1      15    0.0000  3.749000e+01 -8.200000e-01  1.671500e+02
     48       1      25    0.0000  4.090000e+01  7.200000e-01  1.680400e+02
     49       1      16    1.0000  3.918000e+01  3.690000e+00  1.696800e+02
     50       1      20   -1.0000  3.712000e+01  1.260000e+00  1.718200e+02
     51       1      24    0.0000  4.018000e+01 -7.500000e-01  1.728500e+02
     52       1      16    1.0000  4.179000e+01  2.490000e+00  1.740700e+02
     53       1      16    1.0000  3.860000e+01  3.610000e+00  1.758500e+02
     54       1      33    0.0000  3.809000e+01  3.300000e-01  1.776900e+02
     55       1      21    0.0000  4.173000e+01 -2.500000e-01  1.785900e+02
     56       1      26    1.0000  4.170000e+01  3.120000e+00  1.802900e+02
     57       1      30    0.0000  3.860000e+01  2.480000e+00  1.824300e+02
     58       1      31    0.0000  3.783000e+01 -8.000000e-02  1.851300e+02
     59       1      20   -1.0000  3.403000e+01 -2.100000e-01  1.851400e+02
     60       1      25    0.0000  3.235000e+01 -3.600000e+00  1.848400e+02
     61       1      25    0.0000  3.137000e+01 -4.300000e+00  1.812200e+02
     62       1      24    0.0000  2.854000e+01 -6.830000e+00  1.815400e+02
     63       1      16    1.0000  2.516000e+01 -5.410000e+00  1.826900e+02
     64       1      26    1.0000  2.446000e+01 -5.950000e+00  1.863900e+02
     65       1      25    0.0000  2.093000e+01 -7.410000e+00  1.863300e+02
     66       1      29    0.0000  2.148000e+01 -9.880000e+00  1.835000e+02
     67       1      28    0.0000  2.463000e+01 -1.105000e+01  1.853100e+02
     68       1      21    0.0000  2.286000e+01 -1.138000e+01  1.886300e+02
     69       1      16    1.0000  2.020000e+01 -1.351000e+01  1.869500e+02
     70       1      25    0.0000  2.277000e+01 -1.583000e+01  1.854300e+02
     71       1      34    0.0000  2.449000e+01 -1.630000e+01  1.887900e+02
     72       1      16    1.0000  2.123000e+01 -1.709000e+01  1.906400e+02
     73       1      20   -1.0000  2.021000e+01 -1.954000e+01  1.879300e+02
     74       1      24    0.0000  2.352000e+01 -2.141000e+01  1.880800e+02
     75       1      15    0.0000  2.348000e+01 -2.153000e+01  1.919000e+02
     76       1      21    0.0000  1.988000e+01 -2.286000e+01  1.919500e+02
     77       1      18   -1.0000  2.130000e+01 -2.599000e+01  1.902700e+02
     78       1      28    0.0000  2.345000e+01 -2.670000e+01  1.933200e+02
     79       1      26    1.0000  2.116000e+01 -2.554000e+01  1.961300e+02
     80       1      31    0.0000  1.764000e+01 -2.413000e+01  1.958700e+02
     81       1      18   -1.0000  1.632000e+01 -2.110000e+01  1.976900e+02
     82       1      25    0.0000  1.963000e+01 -1.936000e+01  1.981900e+02
     83       1      16    1.0000  2.002000e+01 -1.568000e+01  1.988500e+02
     84       1      28    0.0000  2.317000e+01 -1.371000e+01  1.978800e+02
     85       1      21    0.0000  2.489000e+01 -1.084000e+01  1.996200e+02
     86       1      30    0.0000  2.512000e+01 -8.020000e+00  1.970400e+02
     87       1      30    0.0000  2.893000e+01 -8.090000e+00  1.973600e+02
     88       1      15    0.0000  2.893000e+01 -1.187000e+01  1.966000e+02
     89       1      34    0.0000  2.742000e+01 -1.116000e+01  1.932300e+02
     90       1      27    0.0000  2.981000e+01 -8.250000e+00  1.926700e+02
     91       1      15    0.0000  3.281000e+01 -1.042000e+01  1.936200e+02
     92       1      25    0.0000  3.168000e+01 -1.301000e+01  1.910700e+02
     93       1      21    0.0000  3.129000e+01 -1.034000e+01  1.884000e+02
     94       1      20   -1.0000  3.470000e+01 -8.760000e+00  1.891100e+02
     95       1      15    0.0000  3.629000e+01 -1.224000e+01  1.889500e+02
     96       1      30    0.0000  3.437000e+01 -1.332000e+01  1.858300e+02
     97       1      20   -1.0000  3.517000e+01 -1.018000e+01  1.839000e+02
     98       1      15    0.0000  3.886000e+01 -1.025000e+01  1.848600e+02
     99       1      33    0.0000  3.895000e+01 -1.390000e+01  1.837600e+02
    100       1      25    0.0000  3.733000e+01 -1.318000e+01  1.804000e+02
    101       1      34    0.0000  3.942000e+01 -1.013000e+01  1.796500e+02
    102       1      15    0.0000  4.267000e+01 -1.205000e+01  1.803700e+02
    103       1      25    0.0000  4.138000e+01 -1.496000e+01  1.782600e+02
    104       1      28    0.0000  4.070000e+01 -1.256000e+01  1.753700e+02
    105       1      20   -1.0000  4.428000e+01 -1.129000e+01  1.756300e+02
    106       1      18   -1.0000  4.554000e+01 -1.491000e+01  1.752400e+02
    107       1      31    0.0000  4.298000e+01 -1.565000e+01  1.725000e+02
    108       1      17    0.0000  4.427000e+01 -1.254000e+01  1.706600e+02
    109       1      25    0.0000  4.787000e+01 -1.379000e+01  1.708500e+02
    110       1      19    0.0000  4.665000e+01 -1.711000e+01  1.693300e+02
    111       1      15    0.0000  4.490000e+01 -1.530000e+01  1.664300e+02
    112       1      24    0.0000  4.797000e+01 -1.322000e+01  1.657200e+02
    113       1      23    0.0000  5.011000e+01 -1.636000e+01  1.659100e+02
    114       1      15    0.0000  4.805000e+01 -1.770000e+01  1.630100e+02
    115       1      26    1.0000  4.861000e+01 -1.444000e+01  1.610900e+02
    116       1      16    1.0000  4.505000e+01 -1.326000e+01  1.616800e+02
    117       1      34    0.0000  4.366000e+01 -1.019000e+01  1.634300e+02
    118       1      31    0.0000  4.023000e+01 -1.173000e+01  1.639400e+02
    119       1      24    0.0000  3.973000e+01 -1.393000e+01  1.669900e+02
    120       1      27    0.0000  3.794000e+01 -1.720000e+01  1.663900e+02
    121       1      29    0.0000  3.661000e+01 -2.004000e+01  1.685900e+02
    122       1      26    1.0000  3.970000e+01 -2.213000e+01  1.677700e+02
    123       1      18   -1.0000  4.181000e+01 -1.935000e+01  1.693200e+02
    124       1      24    0.0000  3.981000e+01 -1.943000e+01  1.725500e+02
    125       1      21    0.0000  4.004000e+01 -2.324000e+01  1.725000e+02
    126       1      25    0.0000  4.379000e+01 -2.326000e+01  1.719700e+02
    127       1      15    0.0000  4.432000e+01 -2.078000e+01  1.748000e+02
    128       1      16    1.0000  4.217000e+01 -2.278000e+01  1.772200e+02
    129       1      16    1.0000  4.389000e+01 -2.605000e+01  1.762800e+02
    130       1      24    0.0000  4.737000e+01 -2.458000e+01  1.769100e+02
    131       1      16    1.0000  4.620000e+01 -2.301000e+01  1.801500e+02
    132       1      22    0.0000  4.510000e+01 -2.645000e+01  1.813000e+02
    133       1      20   -1.0000  4.144000e+01 -2.547000e+01  1.814400e+02
    134       1      16    1.0000  4.044000e+01 -2.780000e+01  1.786000e+02
    135       1      15    0.0000  4.351000e+01 -2.998000e+01  1.789600e+02
    136       2      30    0.0000 -6.600000e-01 -6.270000e+00  1.615500e+02
    137       2      22    0.0000  2.560000e+00 -7.730000e+00  1.601600e+02
    138       2      16    1.0000  4.060000e+00 -4.540000e+00  1.587700e+02
    139       2      22    0.0000  7.670000e+00 -3.740000e+00  1.579500e+02
    140       2      26    1.0000  1.070000e+01 -6.010000e+00  1.578700e+02
    141       2      22    0.0000  1.302000e+01 -3.730000e+00  1.598100e+02
    142       2      22    0.0000  1.258000e+01  2.000000e-02  1.600300e+02
    143       2      26    1.0000  1.015000e+01  2.630000e+00  1.613500e+02
    144       2      22    0.0000  6.510000e+00  1.640000e+00  1.617700e+02
    145       2      25    0.0000  5.400000e+00 -5.500000e-01  1.646600e+02
    146       2      22    0.0000  5.450000e+00 -4.270000e+00  1.654100e+02
    147       2      26    1.0000  8.330000e+00 -4.660000e+00  1.629600e+02
    148       2      22    0.0000  1.138000e+01 -6.770000e+00  1.638100e+02
    149       2      22    0.0000  1.280000e+01 -6.280000e+00  1.672800e+02
    150       2      15    0.0000  9.660000e+00 -6.050000e+00  1.693900e+02
    151       2      26    1.0000  9.690000e+00 -8.410000e+00  1.723900e+02
    152       2      16    1.0000  8.150000e+00 -7.590000e+00  1.757600e+02
    153       2      23    0.0000  8.850000e+00 -9.710000e+00  1.788300e+02
    154       2      16    1.0000  1.166000e+01 -9.910000e+00  1.813400e+02
    155       2      26    1.0000  1.306000e+01 -1.333000e+01  1.821200e+02
    156       2      34    0.0000  1.136000e+01 -1.582000e+01  1.843900e+02
    157       2      25    0.0000  1.296000e+01 -1.836000e+01  1.820200e+02
    158       2      16    1.0000  1.436000e+01 -1.671000e+01  1.788700e+02
    159       2      18   -1.0000  1.773000e+01 -1.518000e+01  1.779600e+02
    160       2      17    0.0000  1.985000e+01 -1.545000e+01  1.811100e+02
    161       2      24    0.0000  2.310000e+01 -1.681000e+01  1.796600e+02
    162       2      21    0.0000  2.172000e+01 -1.529000e+01  1.764800e+02
    163       2      22    0.0000  2.146000e+01 -1.213000e+01  1.785100e+02
    164       2      24    0.0000  2.524000e+01 -1.171000e+01  1.783900e+02
    165       2      31    0.0000  2.501000e+01 -9.710000e+00  1.751900e+02
    166       2      26    1.0000  2.711000e+01 -9.560000e+00  1.720700e+02
    167       2      29    0.0000  2.790000e+01 -5.910000e+00  1.729700e+02
    168       2      15    0.0000  2.908000e+01 -6.740000e+00  1.764900e+02
    169       2      24    0.0000  3.131000e+01 -9.530000e+00  1.750900e+02
    170       2      16    1.0000  3.271000e+01 -7.150000e+00  1.724800e+02
    171       2      16    1.0000  3.350000e+01 -4.670000e+00  1.752700e+02
    172       2      25    0.0000  3.528000e+01 -7.370000e+00  1.773000e+02
    173       2      15    0.0000  3.727000e+01 -8.290000e+00  1.741900e+02
    174       2      16    1.0000  3.821000e+01 -4.620000e+00  1.736100e+02
    175       2      16    1.0000  3.955000e+01 -4.310000e+00  1.771300e+02
    176       2      22    0.0000  4.145000e+01 -7.510000e+00  1.762500e+02
    177       2      22    0.0000  4.298000e+01 -5.710000e+00  1.732200e+02
    178       2      34    0.0000  4.095000e+01 -7.470000e+00  1.705300e+02
    179       2      26    1.0000  4.032000e+01 -5.540000e+00  1.672700e+02
    180       2      16    1.0000  3.824000e+01 -7.940000e+00  1.651800e+02
    181       2      24    0.0000  3.581000e+01 -1.062000e+01  1.662800e+02
    182       2      30    0.0000  3.439000e+01 -1.370000e+01  1.645600e+02
    183       2      22    0.0000  3.063000e+01 -1.408000e+01  1.646200e+02
    184       2      25    0.0000  3.101000e+01 -1.740000e+01  1.664200e+02
    185       2      24    0.0000  3.295000e+01 -1.590000e+01  1.693500e+02
    186       2      33    0.0000  2.983000e+01 -1.480000e+01  1.711900e+02
    187       2      20   -1.0000  2.836000e+01 -1.823000e+01  1.717500e+02
    188       2      20   -1.0000  3.179000e+01 -1.960000e+01  1.724900e+02
    189       2      31    0.0000  3.231000e+01 -1.694000e+01  1.751600e+02
    190       2      16    1.0000  2.895000e+01 -1.767000e+01  1.767800e+02
    191       2      22    0.0000  2.989000e+01 -2.134000e+01  1.770400e+02
    192       2      34    0.0000  3.322000e+01 -2.052000e+01  1.786400e+02
    193       2      25    0.0000  3.167000e+01 -1.801000e+01  1.810200e+02
    194       2      26    1.0000  2.903000e+01 -2.052000e+01  1.820900e+02
    195       2      34    0.0000  3.175000e+01 -2.311000e+01  1.829000e+02
    196       2      28    0.0000  3.372000e+01 -2.056000e+01  1.849000e+02
    197       2      25    0.0000  3.066000e+01 -1.958000e+01  1.869600e+02
    198       2      20   -1.0000  2.952000e+01 -2.317000e+01  1.874500e+02
    199       2      17    0.0000  3.297000e+01 -2.395000e+01  1.888500e+02
    200       2      34    0.0000  3.326000e+01 -2.099000e+01  1.911400e+02
    201       2      24    0.0000  2.961000e+01 -2.104000e+01  1.922800e+02
    202       2      16    1.0000  2.970000e+01 -2.477000e+01  1.929700e+02
    203       2      18   -1.0000  3.252000e+01 -2.426000e+01  1.954900e+02
    204       2      15    0.0000  3.103000e+01 -2.111000e+01  1.969800e+02
    205       2      34    0.0000  2.774000e+01 -2.292000e+01  1.976000e+02
    206       2      31    0.0000  2.972000e+01 -2.580000e+01  1.991600e+02
    207       2      33    0.0000  3.114000e+01 -2.332000e+01  2.016600e+02
    208       2      31    0.0000  2.764000e+01 -2.182000e+01  2.021900e+02
    209       2      20   -1.0000  2.614000e+01 -2.521000e+01  2.030000e+02
    210       2      23    0.0000  2.901000e+01 -2.622000e+01  2.052500e+02
    211       2      15    0.0000  2.831000e+01 -2.307000e+01  2.072600e+02
    212       2      26    1.0000  2.466000e+01 -2.408000e+01  2.074800e+02
    213       2      16    1.0000  2.376000e+01 -2.076000e+01  2.057800e+02
    214       2      26    1.0000  2.109000e+01 -1.998000e+01  2.032300e+02
    215       2      31    0.0000  2.290000e+01 -1.687000e+01  2.020000e+02
    216       2      34    0.0000  2.598000e+01 -1.696000e+01  1.997100e+02
    217       2      31    0.0000  2.845000e+01 -1.445000e+01  2.011200e+02
    218       2      15    0.0000  3.124000e+01 -1.252000e+01  1.994700e+02
    219       2      27    0.0000  3.367000e+01 -1.457000e+01  2.016200e+02
    220       2      18   -1.0000  3.220000e+01 -1.784000e+01  2.002500e+02
    221       2      34    0.0000  3.301000e+01 -1.647000e+01  1.967900e+02
    222       2      34    0.0000  3.648000e+01 -1.521000e+01  1.978400e+02
    223       2      33    0.0000  3.736000e+01 -1.863000e+01  1.993000e+02
    224       2      15    0.0000  3.602000e+01 -2.045000e+01  1.962400e+02
    225       2      25    0.0000  3.805000e+01 -1.817000e+01  1.939400e+02
    226       2      26    1.0000  4.121000e+01 -1.865000e+01  1.959700e+02
    227       2      16    1.0000  4.108000e+01 -2.244000e+01  1.958800e+02
    228       2      21    0.0000  4.054000e+01 -2.228000e+01  1.920900e+02
    229       2      22    0.0000  4.378000e+01 -2.025000e+01  1.918000e+02
    230       2      16    1.0000  4.198000e+01 -1.697000e+01  1.911500e+02
    231       2      31    0.0000  4.257000e+01 -1.498000e+01  1.943500e+02
    232       2      25    0.0000  4.048000e+01 -1.181000e+01  1.943200e+02
    233       2      33    0.0000  4.134000e+01 -8.750000e+00  1.964200e+02
    234       2      22    0.0000  3.878000e+01 -6.200000e+00  1.975300e+02
    235       2      28    0.0000  3.603000e+01 -8.290000e+00  1.990800e+02
    236       2      22    0.0000  3.730000e+01 -9.490000e+00  2.024600e+02
    237       2      22    0.0000  3.551000e+01 -6.990000e+00  2.046600e+02
    238       3      30    0.0000  3.170000e+01 -4.527000e+01  2.377900e+02
    239       3      22    0.0000  3.433000e+01 -4.421000e+01  2.403000e+02
    240       3      16    1.0000  3.776000e+01 -4.555000e+01  2.393500e+02
    241       3      22    0.0000  3.798000e+01 -4.855000e+01  2.416700e+02
    242       3      26    1.0000  3.865000e+01 -5.157000e+01  2.394800e+02
    243       3      21    0.0000  3.734000e+01 -5.314000e+01  2.362700e+02
    244       3      22    0.0000  3.722000e+01 -5.658000e+01  2.346700e+02
    245       3      22    0.0000  3.640000e+01 -5.823000e+01  2.313700e+02
    246       3      26    1.0000  3.704000e+01 -5.724000e+01  2.277600e+02
    247       3      31    0.0000  3.425000e+01 -5.700000e+01  2.252000e+02
    248       3      16    1.0000  3.478000e+01 -5.354000e+01  2.237500e+02
    249       3      15    0.0000  3.794000e+01 -5.470000e+01  2.220100e+02
    250       3      26    1.0000  4.146000e+01 -5.457000e+01  2.234700e+02
    251       3      15    0.0000  4.247000e+01 -5.634000e+01  2.202800e+02
    252       3      26    1.0000  4.001000e+01 -5.442000e+01  2.181100e+02
    253       3      31    0.0000  4.152000e+01 -5.164000e+01  2.160300e+02
    254       3      16    1.0000  3.950000e+01 -4.859000e+01  2.150900e+02
    255       3      30    0.0000  4.010000e+01 -4.974000e+01  2.115100e+02
    256       3      30    0.0000  3.834000e+01 -5.309000e+01  2.121500e+02
    257       3      16    1.0000  3.566000e+01 -5.117000e+01  2.140200e+02
    258       3      15    0.0000  3.509000e+01 -4.892000e+01  2.109800e+02
    259       3      22    0.0000  3.533000e+01 -5.184000e+01  2.085100e+02
    260       3      25    0.0000  3.852000e+01 -5.049000e+01  2.069600e+02
    261       3      21    0.0000  4.185000e+01 -5.174000e+01  2.056500e+02
    262       3      28    0.0000  4.362000e+01 -4.836000e+01  2.059400e+02
    263       3      29    0.0000  4.486000e+01 -4.742000e+01  2.094700e+02
    264       3      34    0.0000  4.251000e+01 -4.517000e+01  2.114200e+02
    265       3      22    0.0000  4.497000e+01 -4.481000e+01  2.142800e+02
    266       3      16    1.0000  4.778000e+01 -4.362000e+01  2.120000e+02
    267       3      34    0.0000  4.554000e+01 -4.123000e+01  2.101000e+02
    268       3      23    0.0000  4.439000e+01 -3.975000e+01  2.134600e+02
    269       3      16    1.0000  4.799000e+01 -3.925000e+01  2.145600e+02
    270       3      25    0.0000  4.905000e+01 -3.771000e+01  2.112600e+02
    271       3      25    0.0000  4.607000e+01 -3.529000e+01  2.114000e+02
    272       3      16    1.0000  4.719000e+01 -3.422000e+01  2.148800e+02
    273       3      26    1.0000  5.087000e+01 -3.399000e+01  2.139000e+02
    274       3      22    0.0000  5.018000e+01 -3.175000e+01  2.109000e+02
    275       3      17    0.0000  4.876000e+01 -2.873000e+01  2.127000e+02
    276       3      33    0.0000  4.551000e+01 -2.863000e+01  2.108100e+02
    277       3      15    0.0000  4.337000e+01 -2.762000e+01  2.138200e+02
    278       3      20   -1.0000  4.359000e+01 -2.748000e+01  2.175800e+02
    279       3      16    1.0000  4.127000e+01 -3.050000e+01  2.178100e+02
    280       3      34    0.0000  4.049000e+01 -3.356000e+01  2.156600e+02
    281       3      22    0.0000  3.723000e+01 -3.538000e+01  2.162600e+02
    282       3      15    0.0000  3.712000e+01 -3.920000e+01  2.164600e+02
    283       3      22    0.0000  3.520000e+01 -3.953000e+01  2.132100e+02
    284       3      15    0.0000  3.757000e+01 -3.742000e+01  2.111000e+02
    285       3      29    0.0000  4.036000e+01 -3.999000e+01  2.107500e+02
    286       3      34    0.0000  3.779000e+01 -4.270000e+01  2.101000e+02
    287       3      33    0.0000  3.620000e+01 -4.075000e+01  2.072700e+02
    288       3      25    0.0000  3.959000e+01 -3.974000e+01  2.058800e+02
    289       3      15    0.0000  4.103000e+01 -4.330000e+01  2.060200e+02
    290       3      15    0.0000  3.788000e+01 -4.461000e+01  2.042300e+02
    291       3      34    0.0000  3.834000e+01 -4.199000e+01  2.014600e+02
    292       3      25    0.0000  4.206000e+01 -4.275000e+01  2.010100e+02
    293       3      20   -1.0000  4.128000e+01 -4.645000e+01  2.009000e+02
    294       3      33    0.0000  3.856000e+01 -4.586000e+01  1.983300e+02
    295       3      25    0.0000  4.081000e+01 -4.380000e+01  1.960200e+02
    296       3      31    0.0000  4.358000e+01 -4.635000e+01  1.963700e+02
    297       3      15    0.0000  4.116000e+01 -4.911000e+01  1.953200e+02
    298       3      20   -1.0000  4.005000e+01 -4.708000e+01  1.922900e+02
    299       3      24    0.0000  4.354000e+01 -4.643000e+01  1.909900e+02
    300       3      25    0.0000  4.466000e+01 -5.000000e+01  1.916500e+02
    301       3      20   -1.0000  4.159000e+01 -5.143000e+01  1.899100e+02
    302       3      25    0.0000  4.229000e+01 -4.941000e+01  1.867400e+02
    303       3      15    0.0000  4.608000e+01 -4.994000e+01  1.869800e+02
    304       3      22    0.0000  4.577000e+01 -5.371000e+01  1.873100e+02
    305       3      17    0.0000  4.355000e+01 -5.354000e+01  1.842300e+02
    306       3      15    0.0000  4.630000e+01 -5.165000e+01  1.823400e+02
    307       3      15    0.0000  4.888000e+01 -5.426000e+01  1.834200e+02
    308       3      16    1.0000  4.656000e+01 -5.706000e+01  1.822300e+02
    309       3      18   -1.0000  4.595000e+01 -5.522000e+01  1.789100e+02
    310       3      17    0.0000  4.975000e+01 -5.513000e+01  1.784400e+02
    311       3      26    1.0000  5.003000e+01 -5.882000e+01  1.793800e+02
    312       3      26    1.0000  5.181000e+01 -5.813000e+01  1.826600e+02
    313       3      31    0.0000  5.102000e+01 -5.935000e+01  1.861500e+02
    314       3      16    1.0000  5.303000e+01 -5.677000e+01  1.880300e+02
    315       3      24    0.0000  5.187000e+01 -5.315000e+01  1.881800e+02
    316       3      24    0.0000  5.467000e+01 -5.070000e+01  1.873100e+02
    317       3      29    0.0000  5.459000e+01 -4.684000e+01  1.870700e+02
    318       3      16    1.0000  5.359000e+01 -4.702000e+01  1.834500e+02
    319       3      23    0.0000  5.033000e+01 -4.883000e+01  1.843500e+02
    320       3      25    0.0000  4.950000e+01 -4.626000e+01  1.870200e+02
    321       3      21    0.0000  5.002000e+01 -4.347000e+01  1.844500e+02
    322       3      25    0.0000  4.791000e+01 -4.526000e+01  1.818300e+02
    323       3      15    0.0000  4.518000e+01 -4.578000e+01  1.845000e+02
    324       3      34    0.0000  4.519000e+01 -4.216000e+01  1.855300e+02
    325       3      16    1.0000  4.544000e+01 -4.046000e+01  1.821800e+02
    326       3      17    0.0000  4.280000e+01 -4.262000e+01  1.805200e+02
    327       3      18   -1.0000  4.034000e+01 -4.189000e+01  1.833700e+02
    328       3      20   -1.0000  3.866000e+01 -3.849000e+01  1.832000e+02
    329       3      20   -1.0000  3.825000e+01 -3.798000e+01  1.869300e+02
    330       3      25    0.0000  4.162000e+01 -3.933000e+01  1.881500e+02
    331       3      17    0.0000  4.332000e+01 -3.728000e+01  1.853700e+02
    332       3      26    1.0000  4.170000e+01 -3.415000e+01  1.867600e+02
    333       3      25    0.0000  4.250000e+01 -3.502000e+01  1.903900e+02
    334       3      25    0.0000  4.612000e+01 -3.558000e+01  1.893300e+02
    335       3      22    0.0000  4.625000e+01 -3.282000e+01  1.867100e+02
    336       3      16    1.0000  4.937000e+01 -3.118000e+01  1.881200e+02
    337       3      34    0.0000  5.111000e+01 -3.434000e+01  1.892100e+02
    338       3      31    0.0000  5.389000e+01 -3.618000e+01  1.874000e+02
    339       3      24    0.0000  5.415000e+01 -3.994000e+01  1.878500e+02
    340       3      15    0.0000  5.783000e+01 -4.080000e+01  1.874600e+02
    341       3      21    0.0000  5.860000e+01 -4.337000e+01  1.847300e+02
    342       3      22    0.0000  5.504000e+01 -4.306000e+01  1.835700e+02
    343       3      22    0.0000  5.562000e+01 -4.186000e+01  1.800200e+02
    344       3      34    0.0000  5.264000e+01 -4.040000e+01  1.781500e+02
    345       3      25    0.0000  4.953000e+01 -4.175000e+01  1.763900e+02
    346       3      29    0.0000  5.005000e+01 -4.270000e+01  1.727000e+02
    347       3      17    0.0000  4.856000e+01 -3.980000e+01  1.707900e+02
    348       3      24    0.0000  4.941000e+01 -3.844000e+01  1.673600e+02
    349       3      21    0.0000  4.754000e+01 -3.539000e+01  1.660700e+02
    350       3      30    0.0000  4.544000e+01 -3.630000e+01  1.630000e+02
    351       3      34    0.0000  4.694000e+01 -3.377000e+01  1.606600e+02
    352       3      25    0.0000  5.035000e+01 -3.538000e+01  1.610800e+02
    353       3      25    0.0000  4.938000e+01 -3.876000e+01  1.596100e+02
    354       3      29    0.0000  5.020000e+01 -3.940000e+01  1.559700e+02
    355       3      26    1.0000  4.763000e+01 -3.975000e+01  1.531700e+02
    356       3      26    1.0000  4.612000e+01 -3.870000e+01  1.498400e+02
    357       3      31    0.0000  4.855000e+01 -4.146000e+01  1.488900e+02
    358       3      20   -1.0000  5.086000e+01 -3.844000e+01  1.489900e+02
    359       3      30    0.0000  5.106000e+01 -3.775000e+01  1.452500e+02
    360       3      30    0.0000  5.029000e+01 -3.410000e+01  1.444700e+02
    361       3      26    1.0000  4.716000e+01 -3.351000e+01  1.423700e+02
    362       3      30    0.0000  4.862000e+01 -3.353000e+01  1.388600e+02
    363       3      26    1.0000  5.108000e+01 -3.637000e+01  1.394700e+02
    364       3      30    0.0000  5.406000e+01 -3.465000e+01  1.410900e+02
    365       3      26    1.0000  5.529000e+01 -3.364000e+01  1.445500e+02
    366       4      15    0.0000  5.930000e+01 -5.925000e+01  2.329600e+02
    367       4      26    1.0000  5.992000e+01 -5.550000e+01  2.328100e+02
    368       4      30    0.0000  6.107000e+01 -5.308000e+01  2.301100e+02
    369       4      15    0.0000  6.048000e+01 -4.951000e+01  2.313000e+02
    370       4      29    0.0000  6.144000e+01 -4.700000e+01  2.324800e+02
    371       4      15    0.0000  6.468000e+01 -4.571000e+01  2.309400e+02
    372       4      29    0.0000  6.732000e+01 -4.540000e+01  2.295900e+02
    373       4      26    1.0000  6.800000e+01 -4.733000e+01  2.263700e+02
    374       4      26    1.0000  6.504000e+01 -4.574000e+01  2.245300e+02
    375       4      22    0.0000  6.663000e+01 -4.575000e+01  2.211000e+02
    376       4      30    0.0000  6.915000e+01 -4.851000e+01  2.217400e+02
    377       4      26    1.0000  7.104000e+01 -5.082000e+01  2.193900e+02
    378       4      26    1.0000  7.477000e+01 -5.074000e+01  2.186900e+02
    379       4      15    0.0000  7.677000e+01 -4.909000e+01  2.214600e+02
    380       4      34    0.0000  8.051000e+01 -4.932000e+01  2.207900e+02
    381       4      31    0.0000  8.048000e+01 -5.309000e+01  2.202600e+02
    382       4      26    1.0000  7.968000e+01 -5.580000e+01  2.228300e+02
    383       4      31    0.0000  7.760000e+01 -5.840000e+01  2.209800e+02
    384       4      21    0.0000  7.649000e+01 -6.192000e+01  2.219100e+02